ITEM: TIMESTEP
0
ITEM: NUMBER OF ATOMS
200
ITEM: BOX BOUNDS pp pp pp
0.0000000000000000e+00 4.1600000000000001e+00
0.0000000000000000e+00 2.0800000000000001e+01
0.0000000000000000e+00 2.0800000000000001e+01
ITEM: ATOMS id type xs ys zs
1 1 0 0 0
26 1 0.5 0.1 0
51 3 0.5 0 0.1
76 3 0 0.1 0.1
101 2 0 0 0.1
126 2 0.5 0 0
151 2 0 0.1 0
176 2 0.5 0.1 0.1
6 3 0 0.2 0
31 3 0.5 0.3 0
56 3 0.5 0.2 0.1
81 1 0 0.3 0.1
106 2 0 0.2 0.1
131 2 0.5 0.2 0
156 2 0 0.3 0
181 2 0.5 0.3 0.1
11 1 0 0.4 0
36 3 0.5 0.5 0
61 3 0.5 0.4 0.1
86 3 0 0.5 0.1
111 2 0 0.4 0.1
136 2 0.5 0.4 0
161 2 0 0.5 0
186 2 0.5 0.5 0.1
16 1 0 0.6 0
41 1 0.5 0.7 0
66 3 0.5 0.6 0.1
91 3 0 0.7 0.1
116 2 0 0.6 0.1
141 2 0.5 0.6 0
166 2 0 0.7 0
191 2 0.5 0.7 0.1
21 3 0 0.8 0
46 3 0.5 0.9 0
71 1 0.5 0.8 0.1
96 1 0 0.9 0.1
121 2 0 0.8 0.1
146 2 0.5 0.8 0
171 2 0 0.9 0
196 2 0.5 0.9 0.1
2 3 0 0 0.2
27 3 0.5 0.1 0.2
52 1 0.5 0 0.3
77 1 0 0.1 0.3
102 2 0 0 0.3
127 2 0.5 0 0.2
152 2 0 0.1 0.2
177 2 0.5 0.1 0.3
7 3 0 0.2 0.2
32 3 0.5 0.3 0.2
57 3 0.5 0.2 0.3
82 3 0 0.3 0.3
107 2 0 0.2 0.3
132 2 0.5 0.2 0.2
157 2 0 0.3 0.2
182 2 0.5 0.3 0.3
12 3 0 0.4 0.2
37 1 0.5 0.5 0.2
62 3 0.5 0.4 0.3
87 1 0 0.5 0.3
112 2 0 0.4 0.3
137 2 0.5 0.4 0.2
162 2 0 0.5 0.2
187 2 0.5 0.5 0.3
17 3 0 0.6 0.2
42 3 0.5 0.7 0.2
67 3 0.5 0.6 0.3
92 1 0 0.7 0.3
117 2 0 0.6 0.3
142 2 0.5 0.6 0.2
167 2 0 0.7 0.2
192 2 0.5 0.7 0.3
22 1 0 0.8 0.2
47 1 0.5 0.9 0.2
72 1 0.5 0.8 0.3
97 3 0 0.9 0.3
122 2 0 0.8 0.3
147 2 0.5 0.8 0.2
172 2 0 0.9 0.2
197 2 0.5 0.9 0.3
3 3 0 0 0.4
28 1 0.5 0.1 0.4
53 3 0.5 0 0.5
78 1 0 0.1 0.5
103 2 0 0 0.5
128 2 0.5 0 0.4
153 2 0 0.1 0.4
178 2 0.5 0.1 0.5
8 1 0 0.2 0.4
33 3 0.5 0.3 0.4
58 3 0.5 0.2 0.5
83 3 0 0.3 0.5
108 2 0 0.2 0.5
133 2 0.5 0.2 0.4
158 2 0 0.3 0.4
183 2 0.5 0.3 0.5
13 3 0 0.4 0.4
38 3 0.5 0.5 0.4
63 3 0.5 0.4 0.5
88 3 0 0.5 0.5
113 2 0 0.4 0.5
138 2 0.5 0.4 0.4
163 2 0 0.5 0.4
188 2 0.5 0.5 0.5
18 3 0 0.6 0.4
43 3 0.5 0.7 0.4
68 3 0.5 0.6 0.5
93 1 0 0.7 0.5
118 2 0 0.6 0.5
143 2 0.5 0.6 0.4
168 2 0 0.7 0.4
193 2 0.5 0.7 0.5
23 1 0 0.8 0.4
48 3 0.5 0.9 0.4
73 1 0.5 0.8 0.5
98 1 0 0.9 0.5
123 2 0 0.8 0.5
148 2 0.5 0.8 0.4
173 2 0 0.9 0.4
198 2 0.5 0.9 0.5
4 1 0 0 0.6
29 3 0.5 0.1 0.6
54 1 0.5 0 0.7
79 3 0 0.1 0.7
104 2 0 0 0.7
129 2 0.5 0 0.6
154 2 0 0.1 0.6
179 2 0.5 0.1 0.7
9 3 0 0.2 0.6
34 3 0.5 0.3 0.6
59 3 0.5 0.2 0.7
84 3 0 0.3 0.7
109 2 0 0.2 0.7
134 2 0.5 0.2 0.6
159 2 0 0.3 0.6
184 2 0.5 0.3 0.7
14 1 0 0.4 0.6
39 1 0.5 0.5 0.6
64 3 0.5 0.4 0.7
89 1 0 0.5 0.7
114 2 0 0.4 0.7
139 2 0.5 0.4 0.6
164 2 0 0.5 0.6
189 2 0.5 0.5 0.7
19 1 0 0.6 0.6
44 1 0.5 0.7 0.6
69 3 0.5 0.6 0.7
94 1 0 0.7 0.7
119 2 0 0.6 0.7
144 2 0.5 0.6 0.6
169 2 0 0.7 0.6
194 2 0.5 0.7 0.7
24 3 0 0.8 0.6
49 1 0.5 0.9 0.6
74 1 0.5 0.8 0.7
99 3 0 0.9 0.7
124 2 0 0.8 0.7
149 2 0.5 0.8 0.6
174 2 0 0.9 0.6
199 2 0.5 0.9 0.7
5 1 0 0 0.8
30 3 0.5 0.1 0.8
55 1 0.5 0 0.9
80 3 0 0.1 0.9
105 2 0 0 0.9
130 2 0.5 0 0.8
155 2 0 0.1 0.8
180 2 0.5 0.1 0.9
10 1 0 0.2 0.8
35 3 0.5 0.3 0.8
60 3 0.5 0.2 0.9
85 1 0 0.3 0.9
110 2 0 0.2 0.9
135 2 0.5 0.2 0.8
160 2 0 0.3 0.8
185 2 0.5 0.3 0.9
15 1 0 0.4 0.8
40 1 0.5 0.5 0.8
65 3 0.5 0.4 0.9
90 3 0 0.5 0.9
115 2 0 0.4 0.9
140 2 0.5 0.4 0.8
165 2 0 0.5 0.8
190 2 0.5 0.5 0.9
20 3 0 0.6 0.8
45 1 0.5 0.7 0.8
70 3 0.5 0.6 0.9
95 3 0 0.7 0.9
120 2 0 0.6 0.9
145 2 0.5 0.6 0.8
170 2 0 0.7 0.8
195 2 0.5 0.7 0.9
25 1 0 0.8 0.8
50 1 0.5 0.9 0.8
75 3 0.5 0.8 0.9
100 1 0 0.9 0.9
125 2 0 0.8 0.9
150 2 0.5 0.8 0.8
175 2 0 0.9 0.8
200 2 0.5 0.9 0.9
ITEM: TIMESTEP
25
ITEM: NUMBER OF ATOMS
200
ITEM: BOX BOUNDS pp pp pp
0.0000000000000000e+00 4.1600000000000001e+00
0.0000000000000000e+00 2.0800000000000001e+01
0.0000000000000000e+00 2.0800000000000001e+01
ITEM: ATOMS id type xs ys zs
1 1 3.04688e-17 0.000750485 -0.000705698
26 1 0.5 0.104523 -2.45223e-05
51 3 0.5 -0.00200581 0.0989384
76 3 7.38472e-18 0.097702 0.0984464
101 2 -4.23227e-17 -0.000904601 0.101332
126 2 0.5 -0.0017296 -0.000497936
151 2 -5.042e-17 0.09858 -0.000767485
176 2 0.5 0.0984443 0.100099
6 3 1.58234e-17 0.200152 -0.000100513
31 3 0.5 0.302902 0.000153816
56 3 0.5 0.199912 0.0996876
81 1 2.8131e-17 0.29852 0.0993467
106 2 1.5185e-17 0.198218 0.0998601
131 2 0.5 0.202637 -0.00041811
156 2 -3.81084e-17 0.300969 0.000308041
181 2 0.5 0.300367 0.0999635
11 1 -6.93835e-17 0.402646 -0.00215821
36 3 0.5 0.500759 -0.00145894
61 3 0.5 0.399634 0.0985723
86 3 2.13969e-17 0.500917 0.0990369
111 2 4.21821e-17 0.401308 0.100497
136 2 0.5 0.400728 -0.00136653
161 2 3.37799e-17 0.500575 -0.00139479
186 2 0.5 0.500872 0.097524
16 1 -3.43433e-17 0.598207 -0.00107504
41 1 0.5 0.701104 -0.0029834
66 3 0.5 0.601533 0.0982522
91 3 -7.57824e-17 0.701768 0.0980414
116 2 -3.27097e-17 0.601408 0.0996504
141 2 0.5 0.600733 -0.00127111
166 2 -2.70434e-17 0.701356 -0.00101232
191 2 0.5 0.700272 0.0995374
21 3 -3.50536e-17 0.800428 0.000618439
46 3 0.5 0.900821 0.000498617
71 1 0.5 0.799507 0.10095
96 1 6.66927e-17 0.899371 0.0986781
121 2 -5.89968e-17 0.80109 0.0999532
146 2 0.5 0.802045 -0.00168468
171 2 1.56086e-17 0.900362 -0.000399678
196 2 0.5 0.898641 0.100516
2 3 4.14729e-17 -0.00224609 0.201943
27 3 0.5 0.0983137 0.20176
52 1 0.5 -0.00393518 0.302104
77 1 -5.01726e-17 0.0996584 0.29984
102 2 1.12564e-17 -0.000854195 0.301133
127 2 0.5 -0.000400979 0.200331
152 2 -6.62653e-18 0.098539 0.199609
177 2 0.5 0.0995305 0.301372
7 3 4.07121e-17 0.199317 0.200117
32 3 0.5 0.300072 0.199297
57 3 0.5 0.198311 0.301559
82 3 1.92861e-17 0.299896 0.300797
107 2 1.33407e-16 0.199466 0.300889
132 2 0.5 0.19924 0.200544
157 2 -2.66927e-18 0.300224 0.200799
182 2 0.5 0.299927 0.300498
12 3 -1.34931e-17 0.401794 0.200289
37 1 0.5 0.501103 0.197063
62 3 0.5 0.402223 0.29925
87 1 -5.71337e-18 0.500878 0.302308
112 2 -3.22458e-18 0.400872 0.30003
137 2 0.5 0.400522 0.199769
162 2 4.14772e-17 0.500914 0.199147
187 2 0.5 0.501035 0.300589
17 3 -7.6063e-17 0.599837 0.200851
42 3 0.5 0.702331 0.200148
67 3 0.5 0.600386 0.299327
92 1 -6.37133e-18 0.697251 0.301103
117 2 2.23533e-17 0.599736 0.299952
142 2 0.5 0.601463 0.199769
167 2 -1.64881e-17 0.701043 0.199455
192 2 0.5 0.70259 0.300167
22 1 -3.8425e-17 0.799434 0.200867
47 1 0.5 0.89999 0.199185
72 1 0.5 0.800019 0.298935
97 3 3.51108e-17 0.898712 0.299031
122 2 -2.90035e-17 0.79936 0.298814
147 2 0.5 0.801464 0.199442
172 2 -1.75056e-17 0.89763 0.199937
197 2 0.5 0.897581 0.299999
3 3 1.01454e-16 0.000170901 0.400402
28 1 0.5 0.0990732 0.399834
53 3 0.5 -0.000160016 0.501247
78 1 -9.5646e-18 0.0990141 0.499059
103 2 5.12524e-17 -0.000930569 0.500549
128 2 0.5 -0.000538797 0.400886
153 2 3.39948e-17 0.0987443 0.399131
178 2 0.5 0.0992684 0.49998
8 1 -6.01779e-17 0.202984 0.400298
33 3 0.5 0.299687 0.400619
58 3 0.5 0.198048 0.499118
83 3 -4.45812e-17 0.300031 0.500727
108 2 -6.76822e-18 0.19862 0.499582
133 2 0.5 0.197698 0.40042
158 2 -1.00218e-17 0.301938 0.400601
183 2 0.5 0.299763 0.500585
13 3 -1.65749e-17 0.401758 0.400489
38 3 0.5 0.501902 0.400393
63 3 0.5 0.40156 0.502584
88 3 1.09488e-17 0.501094 0.503304
113 2 7.63897e-18 0.40104 0.501042
138 2 0.5 0.401287 0.400634
163 2 -6.12217e-18 0.501654 0.402442
188 2 0.5 0.501889 0.501286
18 3 -6.99984e-17 0.602193 0.400465
43 3 0.5 0.702546 0.400407
68 3 0.5 0.602317 0.50223
93 1 -6.49863e-18 0.70103 0.499413
118 2 -2.41794e-17 0.601631 0.501459
143 2 0.5 0.60243 0.400586
168 2 4.57853e-17 0.703423 0.400045
193 2 0.5 0.701719 0.500602
23 1 -1.26351e-17 0.800957 0.397352
48 3 0.5 0.898524 0.400396
73 1 0.5 0.800716 0.500535
98 1 -2.26253e-18 0.900837 0.498728
123 2 -2.88583e-17 0.801018 0.502171
148 2 0.5 0.800233 0.40181
173 2 1.37626e-16 0.89932 0.399467
198 2 0.5 0.899576 0.500452
4 1 -4.89525e-18 -0.000718106 0.601545
29 3 0.5 0.0964648 0.599836
54 1 0.5 -0.00114435 0.70258
79 3 -2.98368e-17 0.0964559 0.701113
104 2 -1.67852e-17 -0.00286015 0.700624
129 2 0.5 -0.00261423 0.599582
154 2 6.04675e-18 0.0988479 0.601494
179 2 0.5 0.0983856 0.700425
9 3 2.07528e-17 0.198122 0.599693
34 3 0.5 0.300295 0.600801
59 3 0.5 0.199167 0.700982
84 3 5.2939e-17 0.30004 0.701033
109 2 -6.6817e-17 0.198529 0.699582
134 2 0.5 0.198466 0.599917
159 2 4.00948e-17 0.298409 0.600616
184 2 0.5 0.300554 0.701057
14 1 -2.41191e-17 0.398902 0.601652
39 1 0.5 0.500736 0.600704
64 3 0.5 0.401867 0.700389
89 1 3.00523e-17 0.501313 0.700275
114 2 5.93346e-17 0.402611 0.700272
139 2 0.5 0.400595 0.6016
164 2 -5.56892e-17 0.500611 0.601686
189 2 0.5 0.500969 0.698851
19 1 9.4822e-19 0.59919 0.599446
44 1 0.5 0.700994 0.60097
69 3 0.5 0.601261 0.699292
94 1 3.09664e-17 0.699644 0.699168
119 2 1.64396e-17 0.60098 0.697357
144 2 0.5 0.60283 0.600846
169 2 -4.71785e-17 0.702217 0.600041
194 2 0.5 0.701677 0.699769
24 3 -5.9004e-17 0.800595 0.60052
49 1 0.5 0.898915 0.601361
74 1 0.5 0.800577 0.699473
99 3 -1.40506e-17 0.89902 0.700355
124 2 -3.30791e-17 0.799325 0.700768
149 2 0.5 0.799646 0.599498
174 2 3.0168e-17 0.899594 0.600729
199 2 0.5 0.900318 0.701251
5 1 -8.66294e-17 -0.00201166 0.801331
30 3 0.5 0.0968776 0.800514
55 1 0.5 -0.00041494 0.899034
80 3 -4.32832e-17 0.0971534 0.900347
105 2 -2.25755e-17 -0.00240488 0.900568
130 2 0.5 -0.00345104 0.801343
155 2 3.05277e-17 0.0970148 0.800612
180 2 0.5 0.0983213 0.900531
10 1 -1.36128e-17 0.196746 0.798974
35 3 0.5 0.299199 0.802028
60 3 0.5 0.199933 0.898894
85 1 1.12146e-17 0.29633 0.90281
110 2 1.29887e-19 0.197404 0.900284
135 2 0.5 0.198547 0.800251
160 2 2.25223e-17 0.298565 0.800229
185 2 0.5 0.300632 0.900116
15 1 5.37744e-17 0.396155 0.798085
40 1 0.5 0.50173 0.800465
65 3 0.5 0.399627 0.897698
90 3 -2.81131e-17 0.500014 0.897959
115 2 -2.76022e-17 0.401313 0.89783
140 2 0.5 0.401131 0.798757
165 2 -7.04631e-17 0.501746 0.799074
190 2 0.5 0.500421 0.899597
20 3 3.28325e-17 0.601029 0.79699
45 1 0.5 0.700495 0.79952
70 3 0.5 0.601619 0.899046
95 3 2.61157e-18 0.70039 0.898668
120 2 4.80251e-17 0.600938 0.897763
145 2 0.5 0.601056 0.798091
170 2 -5.93634e-17 0.701068 0.798202
195 2 0.5 0.701002 0.898657
25 1 -2.06495e-17 0.800407 0.799798
50 1 0.5 0.898577 0.79993
75 3 0.5 0.800653 0.897897
100 1 2.18978e-18 0.898484 0.902493
125 2 3.02701e-18 0.79998 0.898783
150 2 0.5 0.799956 0.798158
175 2 -2.38999e-17 0.899943 0.800185
200 2 0.5 0.900625 0.898845
