LAMMPS structure written for MC- Only TiAlN

200 atoms

3 atom types

0.0 4.16 xlo xhi
0.0 20.8 ylo yhi
0.0 20.8 zlo zhi

Masses

1 26.981539
2 14.0067
3 47.867

Atoms

1 1 0.0 0.0 0.0
2 3 0.0 0.0 4.16
3 3 0.0 0.0 8.32
4 1 0.0 0.0 12.480000000000002
5 1 0.0 0.0 16.64
6 3 0.0 4.16 0.0
7 3 0.0 4.16 4.16
8 1 0.0 4.16 8.32
9 3 0.0 4.16 12.480000000000002
10 1 0.0 4.16 16.64
11 1 0.0 8.32 0.0
12 3 0.0 8.32 4.16
13 3 0.0 8.32 8.32
14 1 0.0 8.32 12.480000000000002
15 1 0.0 8.32 16.64
16 1 0.0 12.480000000000002 0.0
17 3 0.0 12.480000000000002 4.16
18 3 0.0 12.480000000000002 8.32
19 1 0.0 12.480000000000002 12.480000000000002
20 3 0.0 12.480000000000002 16.64
21 3 0.0 16.64 0.0
22 1 0.0 16.64 4.16
23 1 0.0 16.64 8.32
24 3 0.0 16.64 12.480000000000002
25 1 0.0 16.64 16.64
26 1 2.08 2.08 0.0
27 3 2.08 2.08 4.16
28 1 2.08 2.08 8.32
29 3 2.08 2.08 12.480000000000002
30 3 2.08 2.08 16.64
31 3 2.08 6.24 0.0
32 3 2.08 6.24 4.16
33 3 2.08 6.24 8.32
34 3 2.08 6.24 12.480000000000002
35 3 2.08 6.24 16.64
36 3 2.08 10.4 0.0
37 1 2.08 10.4 4.16
38 3 2.08 10.4 8.32
39 1 2.08 10.4 12.480000000000002
40 1 2.08 10.4 16.64
41 1 2.08 14.560000000000002 0.0
42 3 2.08 14.560000000000002 4.16
43 3 2.08 14.560000000000002 8.32
44 1 2.08 14.560000000000002 12.480000000000002
45 1 2.08 14.560000000000002 16.64
46 3 2.08 18.72 0.0
47 1 2.08 18.72 4.16
48 3 2.08 18.72 8.32
49 1 2.08 18.72 12.480000000000002
50 1 2.08 18.72 16.64
51 3 2.08 0.0 2.08
52 1 2.08 0.0 6.24
53 3 2.08 0.0 10.4
54 1 2.08 0.0 14.560000000000002
55 1 2.08 0.0 18.72
56 3 2.08 4.16 2.08
57 3 2.08 4.16 6.24
58 3 2.08 4.16 10.4
59 3 2.08 4.16 14.560000000000002
60 3 2.08 4.16 18.72
61 3 2.08 8.32 2.08
62 3 2.08 8.32 6.24
63 3 2.08 8.32 10.4
64 3 2.08 8.32 14.560000000000002
65 3 2.08 8.32 18.72
66 3 2.08 12.480000000000002 2.08
67 3 2.08 12.480000000000002 6.24
68 3 2.08 12.480000000000002 10.4
69 3 2.08 12.480000000000002 14.560000000000002
70 3 2.08 12.480000000000002 18.72
71 1 2.08 16.64 2.08
72 1 2.08 16.64 6.24
73 1 2.08 16.64 10.4
74 1 2.08 16.64 14.560000000000002
75 3 2.08 16.64 18.72
76 3 0.0 2.08 2.08
77 1 0.0 2.08 6.24
78 1 0.0 2.08 10.4
79 3 0.0 2.08 14.560000000000002
80 3 0.0 2.08 18.72
81 1 0.0 6.24 2.08
82 3 0.0 6.24 6.24
83 3 0.0 6.24 10.4
84 3 0.0 6.24 14.560000000000002
85 1 0.0 6.24 18.72
86 3 0.0 10.4 2.08
87 1 0.0 10.4 6.24
88 3 0.0 10.4 10.4
89 1 0.0 10.4 14.560000000000002
90 3 0.0 10.4 18.72
91 3 0.0 14.560000000000002 2.08
92 1 0.0 14.560000000000002 6.24
93 1 0.0 14.560000000000002 10.4
94 1 0.0 14.560000000000002 14.560000000000002
95 3 0.0 14.560000000000002 18.72
96 1 0.0 18.72 2.08
97 3 0.0 18.72 6.24
98 1 0.0 18.72 10.4
99 3 0.0 18.72 14.560000000000002
100 1 0.0 18.72 18.72
101 2 0.0 0.0 2.08
102 2 0.0 0.0 6.24
103 2 0.0 0.0 10.4
104 2 0.0 0.0 14.560000000000002
105 2 0.0 0.0 18.72
106 2 0.0 4.16 2.08
107 2 0.0 4.16 6.24
108 2 0.0 4.16 10.4
109 2 0.0 4.16 14.560000000000002
110 2 0.0 4.16 18.72
111 2 0.0 8.32 2.08
112 2 0.0 8.32 6.24
113 2 0.0 8.32 10.4
114 2 0.0 8.32 14.560000000000002
115 2 0.0 8.32 18.72
116 2 0.0 12.480000000000002 2.08
117 2 0.0 12.480000000000002 6.24
118 2 0.0 12.480000000000002 10.4
119 2 0.0 12.480000000000002 14.560000000000002
120 2 0.0 12.480000000000002 18.72
121 2 0.0 16.64 2.08
122 2 0.0 16.64 6.24
123 2 0.0 16.64 10.4
124 2 0.0 16.64 14.560000000000002
125 2 0.0 16.64 18.72
126 2 2.08 0.0 0.0
127 2 2.08 0.0 4.16
128 2 2.08 0.0 8.32
129 2 2.08 0.0 12.480000000000002
130 2 2.08 0.0 16.64
131 2 2.08 4.16 0.0
132 2 2.08 4.16 4.16
133 2 2.08 4.16 8.32
134 2 2.08 4.16 12.480000000000002
135 2 2.08 4.16 16.64
136 2 2.08 8.32 0.0
137 2 2.08 8.32 4.16
138 2 2.08 8.32 8.32
139 2 2.08 8.32 12.480000000000002
140 2 2.08 8.32 16.64
141 2 2.08 12.480000000000002 0.0
142 2 2.08 12.480000000000002 4.16
143 2 2.08 12.480000000000002 8.32
144 2 2.08 12.480000000000002 12.480000000000002
145 2 2.08 12.480000000000002 16.64
146 2 2.08 16.64 0.0
147 2 2.08 16.64 4.16
148 2 2.08 16.64 8.32
149 2 2.08 16.64 12.480000000000002
150 2 2.08 16.64 16.64
151 2 0.0 2.08 0.0
152 2 0.0 2.08 4.16
153 2 0.0 2.08 8.32
154 2 0.0 2.08 12.480000000000002
155 2 0.0 2.08 16.64
156 2 0.0 6.24 0.0
157 2 0.0 6.24 4.16
158 2 0.0 6.24 8.32
159 2 0.0 6.24 12.480000000000002
160 2 0.0 6.24 16.64
161 2 0.0 10.4 0.0
162 2 0.0 10.4 4.16
163 2 0.0 10.4 8.32
164 2 0.0 10.4 12.480000000000002
165 2 0.0 10.4 16.64
166 2 0.0 14.560000000000002 0.0
167 2 0.0 14.560000000000002 4.16
168 2 0.0 14.560000000000002 8.32
169 2 0.0 14.560000000000002 12.480000000000002
170 2 0.0 14.560000000000002 16.64
171 2 0.0 18.72 0.0
172 2 0.0 18.72 4.16
173 2 0.0 18.72 8.32
174 2 0.0 18.72 12.480000000000002
175 2 0.0 18.72 16.64
176 2 2.08 2.08 2.08
177 2 2.08 2.08 6.24
178 2 2.08 2.08 10.4
179 2 2.08 2.08 14.560000000000002
180 2 2.08 2.08 18.72
181 2 2.08 6.24 2.08
182 2 2.08 6.24 6.24
183 2 2.08 6.24 10.4
184 2 2.08 6.24 14.560000000000002
185 2 2.08 6.24 18.72
186 2 2.08 10.4 2.08
187 2 2.08 10.4 6.24
188 2 2.08 10.4 10.4
189 2 2.08 10.4 14.560000000000002
190 2 2.08 10.4 18.72
191 2 2.08 14.560000000000002 2.08
192 2 2.08 14.560000000000002 6.24
193 2 2.08 14.560000000000002 10.4
194 2 2.08 14.560000000000002 14.560000000000002
195 2 2.08 14.560000000000002 18.72
196 2 2.08 18.72 2.08
197 2 2.08 18.72 6.24
198 2 2.08 18.72 10.4
199 2 2.08 18.72 14.560000000000002
200 2 2.08 18.72 18.72
